 Gaussian 09, Revision A.01,

 --------------------------------------------------------------
 # b3lyp/6-31G** scf=(tight,maxcycle=10000) iop(9/40=20) nosymm
 --------------------------------------------------------------

 -------
 [0] [0]
 -------
 Symbolic Z-matrix:
 Charge =  1 Multiplicity = 1

 SCF Done:  E(RB3LYP) =  -92.3280245384     A.U. after   14 cycles
 Normal termination of Gaussian 09 at Fri Jan 10 13:44:50 2014.

 ----------------------------------------------------------------------
 # force b3lyp/ChkBasis scf=(tight,maxcycle=10000) iop(9/40=20) nosymm
 geom=AllCheck Guess=Read
 ----------------------------------------------------------------------

 [0] [0]
 -------
 Z-Matrix taken from the checkpoint file:
 gaussian.chk
 Charge =  1 Multiplicity = 1

 SCF Done:  E(RB3LYP) =  -92.3280245384     A.U. after    1 cycles
 Normal termination of Gaussian 09 at Fri Jan 10 13:44:52 2014.
 Gaussian 09:  EM64L-G09RevA.01  8-May-2009

 ----------------------------------------------------------------------
 # td(singlet, root=0, nstates=2) b3lyp/ChkBasis scf=(tight,maxcycle=10
 000) iop(9/40=20) nosymm geom=AllCheck Guess=Read
 ----------------------------------------------------------------------

 -------
 No Z-matrix found on checkpoint file.
 Cartesian coordinates read from the checkpoint file:
 gaussian.chk
 Charge =  1 Multiplicity = 1

                          Input orientation:
 ---------------------------------------------------------------------
 Center     Atomic      Atomic             Coordinates (Angstroms)
 Number     Number       Type             X           Y           Z
 ---------------------------------------------------------------------
      1          7           0       -2.341402    1.078225    0.000000
      2          6           0       -1.305384    0.290291    0.000000
      3          1           0       -2.475146    1.200009   -0.508550
      4          1           0       -2.233863    1.528316    0.277839
      5          1           0       -1.425068   -0.179301   -0.292852
      6          1           0       -0.869364    0.556123   -0.244586
 ---------------------------------------------------------------------

 SCF Done:  E(RB3LYP) =  -92.3280245384     A.U. after    1 cycles

 Excitation energies and oscillator strengths:

 Excited state symmetry could not be determined.
 Excited State   1:      Singlet-?Sym    4.2296 eV  293.14 nm  f=0.0630  <S**2>=0.000
       3 ->  9         0.01302
       3 -> 10        -0.00707
       3 -> 11         0.00696
       3 -> 12        -0.00235
       3 -> 13         0.00121
       3 -> 14        -0.00066
       3 -> 15        -0.00145
       3 -> 16         0.00344
       3 -> 17         0.00009
       3 -> 18         0.00192
       3 -> 19         0.00085
       3 -> 20         0.00187
       3 -> 21        -0.00170
       3 -> 22         0.00304
       3 -> 23         0.00125
       3 -> 24         0.00133
       3 -> 25        -0.00237
       3 -> 26        -0.00252
       3 -> 27        -0.00021
       3 -> 28        -0.00052
       3 -> 29         0.00106
       3 -> 30         0.00045
       3 -> 31        -0.00028
       3 -> 32         0.00116
       3 -> 33        -0.00012
       3 -> 34        -0.00069
       3 -> 35         0.00022
       3 -> 36        -0.00002
       3 -> 37         0.00011
       3 -> 38         0.00021
       3 -> 39         0.00030
       3 -> 40        -0.00060
       3 -> 41        -0.00005
       3 -> 42         0.00005
       3 -> 43        -0.00082
       3 -> 44        -0.00049
       3 -> 45         0.00025
       3 -> 46         0.00004
       3 -> 47         0.00008
       3 -> 48        -0.00002
       3 -> 49        -0.00018
       3 -> 50        -0.00003
       4 ->  9         0.01066
       4 -> 10         0.00737
       4 -> 11         0.00829
       4 -> 12        -0.00401
       4 -> 13         0.00268
       4 -> 14         0.00265
       4 -> 15        -0.00274
       4 -> 16         0.00307
       4 -> 17        -0.00005
       4 -> 18         0.00038
       4 -> 19        -0.00023
       4 -> 20         0.00114
       4 -> 21        -0.00431
       4 -> 22        -0.00106
       4 -> 23        -0.00132
       4 -> 24        -0.00225
       4 -> 25         0.00112
       4 -> 26        -0.00215
       4 -> 27        -0.00141
       4 -> 28         0.00057
       4 -> 29         0.00114
       4 -> 30        -0.00048
       4 -> 31        -0.00076
       4 -> 32         0.00100
       4 -> 33         0.00032
       4 -> 34         0.00002
       4 -> 35         0.00012
       4 -> 36         0.00096
       4 -> 37        -0.00004
       4 -> 38         0.00022
       4 -> 39         0.00008
       4 -> 40        -0.00011
       4 -> 41         0.00018
       4 -> 42        -0.00005
       4 -> 43         0.00056
       4 -> 44         0.00020
       4 -> 45         0.00058
       4 -> 46        -0.00033
       4 -> 47        -0.00002
       4 -> 48         0.00009
       4 -> 49         0.00011
       4 -> 50         0.00021
       5 ->  9         0.04030
       5 -> 10         0.00007
       5 -> 11         0.00660
       5 -> 12         0.00597
       5 -> 13         0.00702
       5 -> 14        -0.00383
       5 -> 15        -0.00132
       5 -> 16         0.00130
       5 -> 17        -0.00283
       5 -> 18         0.00186
       5 -> 19         0.00554
       5 -> 20        -0.00074
       5 -> 21        -0.00425
       5 -> 22         0.00069
       5 -> 23        -0.00020
       5 -> 24         0.00102
       5 -> 25        -0.00387
       5 -> 26         0.00517
       5 -> 27        -0.00413
       5 -> 28        -0.00359
       5 -> 29         0.00044
       5 -> 30        -0.00191
       5 -> 31         0.00031
       5 -> 32         0.00004
       5 -> 33        -0.00022
       5 -> 34         0.00039
       5 -> 35         0.00135
       5 -> 36        -0.00019
       5 -> 37         0.00165
       5 -> 38        -0.00007
       5 -> 39        -0.00002
       5 -> 40         0.00003
       5 -> 41         0.00039
       5 -> 42        -0.00109
       5 -> 43         0.00009
       5 -> 44         0.00012
       5 -> 45         0.00003
       5 -> 46        -0.00012
       5 -> 47        -0.00072
       5 -> 48         0.00006
       5 -> 49         0.00010
       5 -> 50         0.00012
       6 ->  9        -0.10209
       6 -> 10         0.00951
       6 -> 11        -0.01607
       6 -> 12         0.00459
       6 -> 13        -0.01366
       6 -> 14        -0.01223
       6 -> 15         0.00827
       6 -> 16        -0.01094
       6 -> 17         0.00006
       6 -> 18        -0.00521
       6 -> 19        -0.00370
       6 -> 20        -0.00571
       6 -> 21         0.00308
       6 -> 22        -0.00336
       6 -> 23         0.00214
       6 -> 24         0.00086
       6 -> 25        -0.00185
       6 -> 26         0.00023
       6 -> 27        -0.00234
       6 -> 28         0.00584
       6 -> 29        -0.00075
       6 -> 30        -0.00107
       6 -> 31         0.00140
       6 -> 32         0.00118
       6 -> 33         0.00052
       6 -> 34         0.00245
       6 -> 35        -0.00035
       6 -> 36        -0.00051
       6 -> 37        -0.00004
       6 -> 38         0.00069
       6 -> 39         0.00054
       6 -> 40         0.00007
       6 -> 41        -0.00024
       6 -> 42        -0.00075
       6 -> 43         0.00020
       6 -> 44         0.00005
       6 -> 45        -0.00024
       6 -> 46         0.00007
       6 -> 47         0.00005
       6 -> 48         0.00047
       6 -> 49        -0.00011
       6 -> 50         0.00021
       7 ->  9        -0.02980
       7 -> 10        -0.01210
       7 -> 11         0.02185
       7 -> 12        -0.01583
       7 -> 13         0.03217
       7 -> 14         0.00910
       7 -> 15        -0.00279
       7 -> 16         0.01776
       7 -> 17         0.00615
       7 -> 18         0.00016
       7 -> 19        -0.00115
       7 -> 20         0.01339
       7 -> 21        -0.00578
       7 -> 22        -0.00012
       7 -> 23         0.00020
       7 -> 24        -0.00040
       7 -> 25        -0.00142
       7 -> 26        -0.00186
       7 -> 27        -0.00141
       7 -> 28         0.00352
       7 -> 29         0.00099
       7 -> 30         0.00030
       7 -> 31        -0.00331
       7 -> 32         0.00065
       7 -> 33        -0.00003
       7 -> 34         0.00012
       7 -> 35         0.00076
       7 -> 36        -0.00090
       7 -> 37        -0.00120
       7 -> 38         0.00005
       7 -> 39         0.00130
       7 -> 40         0.00007
       7 -> 41        -0.00004
       7 -> 42        -0.00007
       7 -> 43         0.00025
       7 -> 44        -0.00013
       7 -> 45        -0.00026
       7 -> 46         0.00004
       7 -> 47         0.00016
       7 -> 48         0.00013
       7 -> 49         0.00016
       7 -> 50         0.00008
       8 ->  9         0.71833
       8 -> 10        -0.00665
       8 -> 11         0.01336
       8 -> 12         0.00431
       8 -> 13         0.01406
       8 -> 14         0.01060
       8 -> 15        -0.01516
       8 -> 16         0.00563
       8 -> 17         0.00130
       8 -> 18        -0.01083
       8 -> 19         0.01165
       8 -> 20        -0.00189
       8 -> 21        -0.00157
       8 -> 22         0.00869
       8 -> 23        -0.00770
       8 -> 24        -0.00229
       8 -> 25         0.00473
       8 -> 26         0.00553
       8 -> 27         0.00043
       8 -> 28        -0.00410
       8 -> 29        -0.00137
       8 -> 30        -0.00091
       8 -> 31        -0.00266
       8 -> 32         0.00227
       8 -> 33        -0.00075
       8 -> 34        -0.00136
       8 -> 35        -0.00102
       8 -> 36         0.00015
       8 -> 37         0.00167
       8 -> 38         0.00046
       8 -> 39        -0.00040
       8 -> 40        -0.00012
       8 -> 41         0.00021
       8 -> 42         0.00028
       8 -> 43         0.00006
       8 -> 44        -0.00011
       8 -> 45        -0.00004
       8 -> 46         0.00014
       8 -> 47        -0.00017
       8 -> 48        -0.00025
       8 -> 49         0.00021
       8 -> 50        -0.00002
       3 <-  9         0.00647
       3 <- 10        -0.00548
       3 <- 11         0.00544
       3 <- 12        -0.00190
       3 <- 13         0.00090
       3 <- 14        -0.00036
       3 <- 15        -0.00053
       3 <- 16         0.00279
       3 <- 17         0.00058
       3 <- 18         0.00131
       3 <- 19         0.00072
       3 <- 20         0.00185
       3 <- 21        -0.00111
       3 <- 22         0.00238
       3 <- 23         0.00117
       3 <- 24         0.00109
       3 <- 25        -0.00186
       3 <- 26        -0.00243
       3 <- 27        -0.00010
       3 <- 28        -0.00077
       3 <- 29         0.00093
       3 <- 30         0.00045
       3 <- 31        -0.00002
       3 <- 32         0.00100
       3 <- 33        -0.00020
       3 <- 34        -0.00052
       3 <- 35         0.00024
       3 <- 36         0.00000
       3 <- 37         0.00001
       3 <- 38         0.00020
       3 <- 39         0.00032
       3 <- 40        -0.00063
       3 <- 41        -0.00004
       3 <- 42         0.00001
       3 <- 43        -0.00073
       3 <- 44        -0.00045
       3 <- 45         0.00020
       3 <- 46         0.00005
       3 <- 47         0.00006
       3 <- 48         0.00000
       3 <- 49        -0.00018
       3 <- 50        -0.00003
       4 <-  9         0.00609
       4 <- 10         0.00548
       4 <- 11         0.00605
       4 <- 12        -0.00289
       4 <- 13         0.00215
       4 <- 14         0.00149
       4 <- 15        -0.00303
       4 <- 16         0.00249
       4 <- 17        -0.00020
       4 <- 18        -0.00026
       4 <- 19        -0.00098
       4 <- 20         0.00092
       4 <- 21        -0.00382
       4 <- 22        -0.00126
       4 <- 23        -0.00108
       4 <- 24        -0.00188
       4 <- 25         0.00021
       4 <- 26        -0.00159
       4 <- 27        -0.00146
       4 <- 28         0.00035
       4 <- 29         0.00103
       4 <- 30        -0.00056
       4 <- 31        -0.00053
       4 <- 32         0.00089
       4 <- 33         0.00046
       4 <- 34        -0.00007
       4 <- 35         0.00004
       4 <- 36         0.00076
       4 <- 37        -0.00012
       4 <- 38         0.00014
       4 <- 39         0.00007
       4 <- 40        -0.00016
       4 <- 41         0.00025
       4 <- 42        -0.00002
       4 <- 43         0.00055
       4 <- 44         0.00018
       4 <- 45         0.00055
       4 <- 46        -0.00034
       4 <- 47         0.00000
       4 <- 48         0.00005
       4 <- 49         0.00009
       4 <- 50         0.00020
       5 <-  9         0.01837
       5 <- 10        -0.00003
       5 <- 11         0.00507
       5 <- 12         0.00420
       5 <- 13         0.00518
       5 <- 14        -0.00229
       5 <- 15        -0.00321
       5 <- 16         0.00221
       5 <- 17        -0.00266
       5 <- 18        -0.00107
       5 <- 19         0.00392
       5 <- 20        -0.00052
       5 <- 21        -0.00294
       5 <- 22         0.00086
       5 <- 23        -0.00092
       5 <- 24        -0.00037
       5 <- 25        -0.00326
       5 <- 26         0.00423
       5 <- 27        -0.00304
       5 <- 28        -0.00342
       5 <- 29         0.00066
       5 <- 30        -0.00183
       5 <- 31         0.00008
       5 <- 32         0.00008
       5 <- 33        -0.00038
       5 <- 34         0.00012
       5 <- 35         0.00092
       5 <- 36        -0.00028
       5 <- 37         0.00153
       5 <- 38        -0.00001
       5 <- 39         0.00000
       5 <- 40        -0.00015
       5 <- 41         0.00050
       5 <- 42        -0.00082
       5 <- 43         0.00016
       5 <- 44         0.00008
       5 <- 45        -0.00003
       5 <- 46        -0.00027
       5 <- 47        -0.00069
       5 <- 48         0.00006
       5 <- 49         0.00006
       5 <- 50         0.00010
       6 <-  9        -0.02186
       6 <- 10         0.00737
       6 <- 11        -0.01294
       6 <- 12         0.00217
       6 <- 13        -0.01200
       6 <- 14        -0.00946
       6 <- 15         0.00560
       6 <- 16        -0.00829
       6 <- 17        -0.00418
       6 <- 18        -0.00246
       6 <- 19        -0.00521
       6 <- 20        -0.00524
       6 <- 21         0.00279
       6 <- 22        -0.00253
       6 <- 23         0.00226
       6 <- 24        -0.00031
       6 <- 25        -0.00156
       6 <- 26        -0.00035
       6 <- 27        -0.00174
       6 <- 28         0.00631
       6 <- 29        -0.00058
       6 <- 30        -0.00094
       6 <- 31         0.00133
       6 <- 32         0.00097
       6 <- 33         0.00033
       6 <- 34         0.00207
       6 <- 35        -0.00041
       6 <- 36        -0.00053
       6 <- 37        -0.00019
       6 <- 38         0.00043
       6 <- 39         0.00046
       6 <- 40         0.00033
       6 <- 41        -0.00033
       6 <- 42        -0.00052
       6 <- 43         0.00006
       6 <- 44         0.00009
       6 <- 45        -0.00003
       6 <- 46        -0.00006
       6 <- 47         0.00010
       6 <- 48         0.00046
       6 <- 49        -0.00010
       6 <- 50         0.00020
       7 <-  9        -0.00399
       7 <- 10        -0.00737
       7 <- 11         0.01395
       7 <- 12        -0.01106
       7 <- 13         0.02129
       7 <- 14         0.00649
       7 <- 15        -0.00199
       7 <- 16         0.01330
       7 <- 17         0.00314
       7 <- 18        -0.00018
       7 <- 19        -0.00198
       7 <- 20         0.01039
       7 <- 21        -0.00424
       7 <- 22        -0.00008
       7 <- 23         0.00020
       7 <- 24        -0.00096
       7 <- 25        -0.00100
       7 <- 26        -0.00163
       7 <- 27        -0.00085
       7 <- 28         0.00239
       7 <- 29         0.00094
       7 <- 30         0.00027
       7 <- 31        -0.00273
       7 <- 32         0.00061
       7 <- 33        -0.00017
       7 <- 34         0.00012
       7 <- 35         0.00061
       7 <- 36        -0.00089
       7 <- 37        -0.00126
       7 <- 38        -0.00004
       7 <- 39         0.00116
       7 <- 40        -0.00006
       7 <- 41         0.00000
       7 <- 42        -0.00002
       7 <- 43         0.00025
       7 <- 44        -0.00011
       7 <- 45        -0.00023
       7 <- 46        -0.00003
       7 <- 47         0.00015
       7 <- 48         0.00014
       7 <- 49         0.00013
       7 <- 50         0.00008
       8 <-  9        -0.17659
       8 <- 10        -0.00092
       8 <- 11         0.00159
       8 <- 12         0.00386
       8 <- 13         0.00410
       8 <- 14         0.00312
       8 <- 15        -0.00598
       8 <- 16         0.00204
       8 <- 17         0.00748
       8 <- 18        -0.01225
       8 <- 19         0.00432
       8 <- 20        -0.00139
       8 <- 21         0.00149
       8 <- 22         0.00495
       8 <- 23        -0.00509
       8 <- 24        -0.00286
       8 <- 25         0.00389
       8 <- 26         0.00307
       8 <- 27         0.00063
       8 <- 28        -0.00163
       8 <- 29        -0.00133
       8 <- 30        -0.00080
       8 <- 31        -0.00131
       8 <- 32         0.00205
       8 <- 33        -0.00064
       8 <- 34        -0.00084
       8 <- 35        -0.00117
       8 <- 36        -0.00016
       8 <- 37         0.00089
       8 <- 38         0.00036
       8 <- 39        -0.00028
       8 <- 40        -0.00049
       8 <- 41         0.00020
       8 <- 42         0.00014
       8 <- 43         0.00024
       8 <- 44        -0.00017
       8 <- 45        -0.00013
       8 <- 46         0.00009
       8 <- 47         0.00000
       8 <- 48        -0.00017
       8 <- 49         0.00017
       8 <- 50        -0.00004
 This state for optimization and/or second-order correction.
 Copying the excited state density for this state as the 1-particle RhoCI density.

 Excited state symmetry could not be determined.
 Excited State   2:      Singlet-?Sym    8.8181 eV  140.60 nm  f=0.0114  <S**2>=0.000
       3 ->  9         0.01285
       3 -> 10         0.00030
       3 -> 11        -0.00083
       3 -> 12         0.00106
       3 -> 13        -0.00156
       3 -> 14         0.00042
       3 -> 15         0.00085
       3 -> 16        -0.00039
       3 -> 17        -0.00233
       3 -> 18         0.00064
       3 -> 19        -0.00102
       3 -> 20        -0.00124
       3 -> 21         0.00025
       3 -> 22         0.00009
       3 -> 23         0.00110
       3 -> 24        -0.00002
       3 -> 25         0.00111
       3 -> 26         0.00058
       3 -> 27         0.00009
       3 -> 28         0.00082
       3 -> 29        -0.00073
       3 -> 30         0.00021
       3 -> 31         0.00001
       3 -> 32         0.00023
       3 -> 33        -0.00006
       3 -> 34         0.00015
       3 -> 35        -0.00010
       3 -> 36        -0.00017
       3 -> 37        -0.00043
       3 -> 38         0.00007
       3 -> 39         0.00025
       3 -> 40         0.00019
       3 -> 41        -0.00012
       3 -> 42         0.00020
       3 -> 43         0.00028
       3 -> 44        -0.00010
       3 -> 45        -0.00006
       3 -> 46        -0.00009
       3 -> 47         0.00031
       3 -> 48         0.00010
       3 -> 49         0.00005
       3 -> 50        -0.00002
       4 ->  9         0.00348
       4 -> 10         0.00155
       4 -> 11        -0.00079
       4 -> 12         0.00155
       4 -> 13        -0.00099
       4 -> 14         0.00006
       4 -> 15         0.00184
       4 -> 16        -0.00122
       4 -> 17         0.00008
       4 -> 18         0.00125
       4 -> 19        -0.00026
       4 -> 20        -0.00107
       4 -> 21        -0.00086
       4 -> 22        -0.00010
       4 -> 23         0.00078
       4 -> 24        -0.00086
       4 -> 25         0.00008
       4 -> 26         0.00108
       4 -> 27         0.00137
       4 -> 28        -0.00029
       4 -> 29         0.00176
       4 -> 30         0.00147
       4 -> 31        -0.00010
       4 -> 32         0.00006
       4 -> 33         0.00029
       4 -> 34         0.00013
       4 -> 35         0.00066
       4 -> 36        -0.00106
       4 -> 37        -0.00017
       4 -> 38         0.00012
       4 -> 39         0.00063
       4 -> 40         0.00025
       4 -> 41        -0.00013
       4 -> 42        -0.00072
       4 -> 43         0.00040
       4 -> 44        -0.00019
       4 -> 45         0.00000
       4 -> 46         0.00064
       4 -> 47        -0.00017
       4 -> 48         0.00010
       4 -> 49         0.00002
       4 -> 50        -0.00005
       5 ->  9         0.02040
       5 -> 10         0.00007
       5 -> 11         0.00136

 Alpha  occ. eigenvalues --  -14.70602 -10.64531  -1.46419  -1.19557  -1.05181
 Alpha  occ. eigenvalues --   -0.94607  -0.89984  -0.66038
 Alpha virt. eigenvalues --   -0.49489  -0.12237  -0.05396  -0.01306   0.01878
 Alpha virt. eigenvalues --    0.02652   0.17371   0.20475   0.23422   0.38123
 Alpha virt. eigenvalues --    0.41960   0.49321   0.62080   0.84630   0.97210

 Mulliken atomic charges:
              1
     1  N    0.150952
     2  C    0.660555
     3  H    0.078738
     4  H    0.114983
     5  H    0.006370
     6  H   -0.011599
 Sum of Mulliken atomic charges =   1.00000

 Dipole moment (field-independent basis, Debye):
    X=             -7.7717    Y=              3.4950    Z=             -0.3345  Tot=              8.5279
 Quadrupole moment (field-independent basis, Debye-Ang):
   XX=              3.7959   YY=             -4.7700   ZZ=             -8.4629
   XY=             -7.3781   XZ=              1.1386   YZ=             -0.4025

 Normal termination of Gaussian 09 at Fri Jan 10 13:44:59 2014.
